# vtk DataFile Version 3.0
#This file was generated by the deal.II library on 2022/11/2 at 17:45:37
ASCII
DATASET UNSTRUCTURED_GRID

POINTS 31824 double
129.636 0 0
151.242 0 0
129.636 21.606 0
151.242 21.606 0
129.636 0 30
151.242 0 30
129.636 21.606 30
151.242 21.606 30
151.242 0 0
172.848 0 0
151.242 21.606 0
172.848 21.606 0
151.242 0 30
172.848 0 30
151.242 21.606 30
172.848 21.606 30
172.848 0 0
194.454 0 0
172.848 21.606 0
194.454 21.606 0
172.848 0 30
194.454 0 30
172.848 21.606 30
194.454 21.606 30
194.454 0 0
216.06 0 0
194.454 21.606 0
216.06 21.606 0
194.454 0 30
216.06 0 30
194.454 21.606 30
216.06 21.606 30
216.06 0 0
237.666 0 0
216.06 21.606 0
237.666 21.606 0
216.06 0 30
237.666 0 30
216.06 21.606 30
237.666 21.606 30
86.424 21.606 0
108.03 21.606 0
86.424 43.212 0
108.03 43.212 0
86.424 21.606 30
108.03 21.606 30
86.424 43.212 30
108.03 43.212 30
108.03 21.606 0
129.636 21.606 0
108.03 43.212 0
129.636 43.212 0
108.03 21.606 30
129.636 21.606 30
108.03 43.212 30
129.636 43.212 30
129.636 21.606 0
151.242 21.606 0
129.636 43.212 0
151.242 43.212 0
129.636 21.606 30
151.242 21.606 30
129.636 43.212 30
151.242 43.212 30
151.242 21.606 0
172.848 21.606 0
151.242 43.212 0
172.848 43.212 0
151.242 21.606 30
172.848 21.606 30
151.242 43.212 30
172.848 43.212 30
172.848 21.606 0
194.454 21.606 0
172.848 43.212 0
194.454 43.212 0
172.848 21.606 30
194.454 21.606 30
172.848 43.212 30
194.454 43.212 30
194.454 21.606 0
216.06 21.606 0
194.454 43.212 0
216.06 43.212 0
194.454 21.606 30
216.06 21.606 30
194.454 43.212 30
216.06 43.212 30
216.06 21.606 0
237.666 21.606 0
216.06 43.212 0
237.666 43.212 0
216.06 21.606 30
237.666 21.606 30
216.06 43.212 30
237.666 43.212 30
237.666 21.606 0
259.272 21.606 0
237.666 43.212 0
259.272 43.212 0
237.666 21.606 30
259.272 21.606 30
237.666 43.212 30
259.272 43.212 30
259.272 21.606 0
280.878 21.606 0
259.272 43.212 0
280.878 43.212 0
259.272 21.606 30
280.878 21.606 30
259.272 43.212 30
280.878 43.212 30
64.818 43.212 0
86.424 43.212 0
64.818 64.818 0
86.424 64.818 0
64.818 43.212 30
86.424 43.212 30
64.818 64.818 30
86.424 64.818 30
86.424 43.212 0
108.03 43.212 0
86.424 64.818 0
108.03 64.818 0
86.424 43.212 30
108.03 43.212 30
86.424 64.818 30
108.03 64.818 30
108.03 43.212 0
129.636 43.212 0
108.03 64.818 0
129.636 64.818 0
108.03 43.212 30
129.636 43.212 30
108.03 64.818 30
129.636 64.818 30
129.636 43.212 0
151.242 43.212 0
129.636 64.818 0
151.242 64.818 0
129.636 43.212 30
151.242 43.212 30
129.636 64.818 30
151.242 64.818 30
151.242 43.212 0
172.848 43.212 0
151.242 64.818 0
172.848 64.818 0
151.242 43.212 30
172.848 43.212 30
151.242 64.818 30
172.848 64.818 30
172.848 43.212 0
194.454 43.212 0
172.848 64.818 0
194.454 64.818 0
172.848 43.212 30
194.454 43.212 30
172.848 64.818 30
194.454 64.818 30
194.454 43.212 0
216.06 43.212 0
194.454 64.818 0
216.06 64.818 0
194.454 43.212 30
216.06 43.212 30
194.454 64.818 30
216.06 64.818 30
216.06 43.212 0
237.666 43.212 0
216.06 64.818 0
237.666 64.818 0
216.06 43.212 30
237.666 43.212 30
216.06 64.818 30
237.666 64.818 30
237.666 43.212 0
259.272 43.212 0
237.666 64.818 0
259.272 64.818 0
237.666 43.212 30
259.272 43.212 30
237.666 64.818 30
259.272 64.818 30
259.272 43.212 0
280.878 43.212 0
259.272 64.818 0
280.878 64.818 0
259.272 43.212 30
280.878 43.212 30
259.272 64.818 30
280.878 64.818 30
280.878 43.212 0
302.484 43.212 0
280.878 64.818 0
302.484 64.818 0
280.878 43.212 30
302.484 43.212 30
280.878 64.818 30
302.484 64.818 30
43.212 64.818 0
64.818 64.818 0
43.212 86.424 0
64.818 86.424 0
43.212 64.818 30
64.818 64.818 30
43.212 86.424 30
64.818 86.424 30
64.818 64.818 0
86.424 64.818 0
64.818 86.424 0
86.424 86.424 0
64.818 64.818 30
86.424 64.818 30
64.818 86.424 30
86.424 86.424 30
86.424 64.818 0
108.03 64.818 0
86.424 86.424 0
108.03 86.424 0
86.424 64.818 30
108.03 64.818 30
86.424 86.424 30
108.03 86.424 30
108.03 64.818 0
129.636 64.818 0
108.03 86.424 0
129.636 86.424 0
108.03 64.818 30
129.636 64.818 30
108.03 86.424 30
129.636 86.424 30
129.636 64.818 0
151.242 64.818 0
129.636 86.424 0
151.242 86.424 0
129.636 64.818 30
151.242 64.818 30
129.636 86.424 30
151.242 86.424 30
151.242 64.818 0
172.848 64.818 0
151.242 86.424 0
172.848 86.424 0
151.242 64.818 30
172.848 64.818 30
151.242 86.424 30
172.848 86.424 30
172.848 64.818 0
194.454 64.818 0
172.848 86.424 0
194.454 86.424 0
172.848 64.818 30
194.454 64.818 30
172.848 86.424 30
194.454 86.424 30
194.454 64.818 0
216.06 64.818 0
194.454 86.424 0
216.06 86.424 0
194.454 64.818 30
216.06 64.818 30
194.454 86.424 30
216.06 86.424 30
216.06 64.818 0
237.666 64.818 0
216.06 86.424 0
237.666 86.424 0
216.06 64.818 30
237.666 64.818 30
216.06 86.424 30
237.666 86.424 30
237.666 64.818 0
259.272 64.818 0
237.666 86.424 0
259.272 86.424 0
237.666 64.818 30
259.272 64.818 30
237.666 86.424 30
259.272 86.424 30
259.272 64.818 0
280.878 64.818 0
259.272 86.424 0
280.878 86.424 0
259.272 64.818 30
280.878 64.818 30
259.272 86.424 30
280.878 86.424 30
280.878 64.818 0
302.484 64.818 0
280.878 86.424 0
302.484 86.424 0
280.878 64.818 30
302.484 64.818 30
280.878 86.424 30
302.484 86.424 30
302.484 64.818 0
324.09 64.818 0
302.484 86.424 0
324.09 86.424 0
302.484 64.818 30
324.09 64.818 30
302.484 86.424 30
324.09 86.424 30
21.606 86.424 0
43.212 86.424 0
21.606 108.03 0
43.212 108.03 0
21.606 86.424 30
43.212 86.424 30
21.606 108.03 30
43.212 108.03 30
43.212 86.424 0
64.818 86.424 0
43.212 108.03 0
64.818 108.03 0
43.212 86.424 30
64.818 86.424 30
43.212 108.03 30
64.818 108.03 30
64.818 86.424 0
86.424 86.424 0
64.818 108.03 0
86.424 108.03 0
64.818 86.424 30
86.424 86.424 30
64.818 108.03 30
86.424 108.03 30
86.424 86.424 0
108.03 86.424 0
86.424 108.03 0
108.03 108.03 0
86.424 86.424 30
108.03 86.424 30
86.424 108.03 30
108.03 108.03 30
108.03 86.424 0
129.636 86.424 0
108.03 108.03 0
129.636 108.03 0
108.03 86.424 30
129.636 86.424 30
108.03 108.03 30
129.636 108.03 30
129.636 86.424 0
151.242 86.424 0
129.636 108.03 0
151.242 108.03 0
129.636 86.424 30
151.242 86.424 30
129.636 108.03 30
151.242 108.03 30
151.242 86.424 0
172.848 86.424 0
151.242 108.03 0
172.848 108.03 0
151.242 86.424 30
172.848 86.424 30
151.242 108.03 30
172.848 108.03 30
172.848 86.424 0
194.454 86.424 0
172.848 108.03 0
194.454 108.03 0
172.848 86.424 30
194.454 86.424 30
172.848 108.03 30
194.454 108.03 30
194.454 86.424 0
216.06 86.424 0
194.454 108.03 0
216.06 108.03 0
194.454 86.424 30
216.06 86.424 30
194.454 108.03 30
216.06 108.03 30
216.06 86.424 0
237.666 86.424 0
216.06 108.03 0
237.666 108.03 0
216.06 86.424 30
237.666 86.424 30
216.06 108.03 30
237.666 108.03 30
237.666 86.424 0
259.272 86.424 0
237.666 108.03 0
259.272 108.03 0
237.666 86.424 30
259.272 86.424 30
237.666 108.03 30
259.272 108.03 30
259.272 86.424 0
280.878 86.424 0
259.272 108.03 0
280.878 108.03 0
259.272 86.424 30
280.878 86.424 30
259.272 108.03 30
280.878 108.03 30
280.878 86.424 0
302.484 86.424 0
280.878 108.03 0
302.484 108.03 0
280.878 86.424 30
302.484 86.424 30
280.878 108.03 30
302.484 108.03 30
302.484 86.424 0
324.09 86.424 0
302.484 108.03 0
324.09 108.03 0
302.484 86.424 30
324.09 86.424 30
302.484 108.03 30
324.09 108.03 30
324.09 86.424 0
345.696 86.424 0
324.09 108.03 0
345.696 108.03 0
324.09 86.424 30
345.696 86.424 30
324.09 108.03 30
345.696 108.03 30
21.606 108.03 0
43.212 108.03 0
21.606 129.636 0
43.212 129.636 0
21.606 108.03 30
43.212 108.03 30
21.606 129.636 30
43.212 129.636 30
43.212 108.03 0
64.818 108.03 0
43.212 129.636 0
64.818 129.636 0
43.212 108.03 30
64.818 108.03 30
43.212 129.636 30
64.818 129.636 30
64.818 108.03 0
86.424 108.03 0
64.818 129.636 0
86.424 129.636 0
64.818 108.03 30
86.424 108.03 30
64.818 129.636 30
86.424 129.636 30
86.424 108.03 0
108.03 108.03 0
86.424 129.636 0
108.03 129.636 0
86.424 108.03 30
108.03 108.03 30
86.424 129.636 30
108.03 129.636 30
108.03 108.03 0
129.636 108.03 0
108.03 129.636 0
129.636 129.636 0
108.03 108.03 30
129.636 108.03 30
108.03 129.636 30
129.636 129.636 30
129.636 108.03 0
151.242 108.03 0
129.636 129.636 0
151.242 129.636 0
129.636 108.03 30
151.242 108.03 30
129.636 129.636 30
151.242 129.636 30
151.242 108.03 0
172.848 108.03 0
151.242 129.636 0
172.848 129.636 0
151.242 108.03 30
172.848 108.03 30
151.242 129.636 30
172.848 129.636 30
172.848 108.03 0
194.454 108.03 0
172.848 129.636 0
194.454 129.636 0
172.848 108.03 30
194.454 108.03 30
172.848 129.636 30
194.454 129.636 30
194.454 108.03 0
216.06 108.03 0
194.454 129.636 0
216.06 129.636 0
194.454 108.03 30
216.06 108.03 30
194.454 129.636 30
216.06 129.636 30
216.06 108.03 0
237.666 108.03 0
216.06 129.636 0
237.666 129.636 0
216.06 108.03 30
237.666 108.03 30
216.06 129.636 30
237.666 129.636 30
237.666 108.03 0
259.272 108.03 0
237.666 129.636 0
259.272 129.636 0
237.666 108.03 30
259.272 108.03 30
237.666 129.636 30
259.272 129.636 30
259.272 108.03 0
280.878 108.03 0
259.272 129.636 0
280.878 129.636 0
259.272 108.03 30
280.878 108.03 30
259.272 129.636 30
280.878 129.636 30
280.878 108.03 0
302.484 108.03 0
280.878 129.636 0
302.484 129.636 0
280.878 108.03 30
302.484 108.03 30
280.878 129.636 30
302.484 129.636 30
302.484 108.03 0
324.09 108.03 0
302.484 129.636 0
324.09 129.636 0
302.484 108.03 30
324.09 108.03 30
302.484 129.636 30
324.09 129.636 30
324.09 108.03 0
345.696 108.03 0
324.09 129.636 0
345.696 129.636 0
324.09 108.03 30
345.696 108.03 30
324.09 129.636 30
345.696 129.636 30
0 129.636 0
21.606 129.636 0
0 151.242 0
21.606 151.242 0
0 129.636 30
21.606 129.636 30
0 151.242 30
21.606 151.242 30
21.606 129.636 0
43.212 129.636 0
21.606 151.242 0
43.212 151.242 0
21.606 129.636 30
43.212 129.636 30
21.606 151.242 30
43.212 151.242 30
43.212 129.636 0
64.818 129.636 0
43.212 151.242 0
64.818 151.242 0
43.212 129.636 30
64.818 129.636 30
43.212 151.242 30
64.818 151.242 30
64.818 129.636 0
86.424 129.636 0
64.818 151.242 0
86.424 151.242 0
64.818 129.636 30
86.424 129.636 30
64.818 151.242 30
86.424 151.242 30
86.424 129.636 0
[...]
POINT_DATA 31824
SCALARS phi_g1_eig_1 double 1
LOOKUP_TABLE default
-3.881e-15 -2.41075e-15 -4.06072e-15 -1.99345e-15 -1.58343e-15 -3.48571e-15 -2.90137e-15 1.3394 -2.41075e-15 -1.63202e-15 -1.99345e-15 -4.46193e-15 -3.48571e-15 -5.21981e-15 1.3394 2.47686 -1.63202e-15 -2.42741e-15 -4.46193e-15 -2.65103e-15 -5.21981e-15 -3.59644e-15 2.47686 2.47686 -2.42741e-15 -2.59562e-15 -2.65103e-15 -4.79941e-15 -3.59644e-15 -2.50558e-15 2.47686 1.3394 -2.59562e-15 -4.50919e-15 -4.79941e-15 -4.35808e-15 -2.50558e-15 -1.55312e-15 1.3394 -3.34486e-15 -2.56722e-15 -1.10332e-15 -1.54982e-15 -1.51883e-15 -3.67547e-15 -2.47206e-15 -3.5707e-15 1.75286 -1.10332e-15 -4.06072e-15 -1.51883e-15 -3.92967e-15 -2.47206e-15 -2.90137e-15 1.75286 2.99468 -4.06072e-15 -1.99345e-15 -3.92967e-15 -2.22124e-15 -2.90137e-15 1.3394 2.99468 3.93137 -1.99345e-15 -4.46193e-15 -2.22124e-15 -5.21569e-15 1.3394 2.47686 3.93137 5.02746 -4.46193e-15 -2.65103e-15 -5.21569e-15 -1.25014e-15 2.47686 2.47686 5.02746 5.02746 -2.65103e-15 -4.79941e-15 -1.25014e-15 -3.25534e-15 2.47686 1.3394 5.02746 3.93137 -4.79941e-15 -4.35808e-15 -3.25534e-15 -2.10798e-15 1.3394 -3.34486e-15 3.93137 2.99468 -4.35808e-15 -3.6439e-15 -2.10798e-15 -3.71525e-15 -3.34486e-15 -3.59574e-15 2.99468 1.75286 -3.6439e-15 -4.32797e-16 -3.71525e-15 -3.27761e-15 -3.59574e-15 -1.68781e-15 1.75286 -2.06564e-15 -3.08254e-15 -1.54982e-15 -4.16987e-15 -3.36832e-15 -2.69804e-15 -3.5707e-15 -4.81456e-15 2.20796 -1.54982e-15 -1.51883e-15 -3.36832e-15 -2.73135e-15 -3.5707e-15 1.75286 2.20796 5.35683 -1.51883e-15 -3.92967e-15 -2.73135e-15 -2.86953e-15 1.75286 2.99468 5.35683 6.84748 -3.92967e-15 -2.22124e-15 -2.86953e-15 -4.56725e-15 2.99468 3.93137 6.84748 6.85503 -2.22124e-15 -5.21569e-15 -4.56725e-15 -4.13513e-15 3.93137 5.02746 6.85503 7.57083 -5.21569e-15 -1.25014e-15 -4.13513e-15 -1.97468e-15 5.02746 5.02746 7.57083 7.57083 -1.25014e-15 -3.25534e-15 -1.97468e-15 -2.5797e-15 5.02746 3.93137 7.57083 6.85503 -3.25534e-15 -2.10798e-15 -2.5797e-15 -2.40887e-15 3.93137 2.99468 6.85503 6.84748 -2.10798e-15 -3.71525e-15 -2.40887e-15 -3.34425e-15 2.99468 1.75286 6.84748 5.35683 -3.71525e-15 -3.27761e-15 -3.34425e-15 -2.18924e-15 1.75286 -2.06564e-15 5.35683 2.20796 -3.27761e-15 -4.16033e-15 -2.18924e-15 -3.55048e-15 -2.06564e-15 -1.52188e-15 2.20796 -1.7677e-15 -8.99201e-16 -4.16987e-15 -4.21782e-15 -5.02195e-15 -3.05199e-15 -4.81456e-15 -1.67397e-15 2.20796 -4.16987e-15 -3.36832e-15 -5.02195e-15 -2.76299e-15 -4.81456e-15 2.20796 2.20796 5.07504 -3.36832e-15 -2.73135e-15 -2.76299e-15 -2.77309e-15 2.20796 5.35683 5.07504 8.31036 -2.73135e-15 -2.86953e-15 -2.77309e-15 -3.27946e-15 5.35683 6.84748 8.31036 9.71125 -2.86953e-15 -4.56725e-15 -3.27946e-15 -8.74797e-16 6.84748 6.85503 9.71125 10.3811 -4.56725e-15 -4.13513e-15 -8.74797e-16 -3.26839e-15 6.85503 7.57083 10.3811 12.8625 -4.13513e-15 -1.97468e-15 -3.26839e-15 -1.81692e-15 7.57083 7.57083 12.8625 12.8625 -1.97468e-15 -2.5797e-15 -1.81692e-15 -3.3945e-15 7.57083 6.85503 12.8625 10.3811 -2.5797e-15 -2.40887e-15 -3.3945e-15 -2.76176e-15 6.85503 6.84748 10.3811 9.71125 -2.40887e-15 -3.34425e-15 -2.76176e-15 -3.78169e-15 6.84748 5.35683 9.71125 8.31036 -3.34425e-15 -2.18924e-15 -3.78169e-15 -2.66801e-15 5.35683 2.20796 8.31036 5.07504 -2.18924e-15 -3.55048e-15 -2.66801e-15 -2.18629e-15 2.20796 -1.7677e-15 5.07504 2.20796 -3.55048e-15 -1.70666e-15 -2.18629e-15 -3.24567e-15 -1.7677e-15 -2.33756e-15 2.20796 -3.41533e-15 4.66518e-16 -4.21782e-15 -3.41849e-15 -2.40168e-15 -2.1112e-15 -1.67397e-15 -1.66219e-15 1.75286 -4.21782e-15 -5.02195e-15 -2.40168e-15 -1.6643e-15 -1.67397e-15 2.20796 1.75286 5.35683 -5.02195e-15 -2.76299e-15 -1.6643e-15 -2.82649e-15 2.20796 5.07504 5.35683 8.31036 -2.76299e-15 -2.77309e-15 -2.82649e-15 -4.39484e-15 5.07504 8.31036 8.31036 10.8464 -2.77309e-15 -3.27946e-15 -4.39484e-15 -4.01941e-15 8.31036 9.71125 10.8464 12.8891 -3.27946e-15 -8.74797e-16 -4.01941e-15 -1.7609e-15 9.71125 10.3811 12.8891 15.099 -8.74797e-16 -3.26839e-15 -1.7609e-15 -4.31203e-15 10.3811 12.8625 15.099 17.9408 -3.26839e-15 -1.81692e-15 -4.31203e-15 -3.61139e-15 12.8625 12.8625 17.9408 17.9408 -1.81692e-15 -3.3945e-15 -3.61139e-15 -1.87328e-15 12.8625 10.3811 17.9408 15.099 -3.3945e-15 -2.76176e-15 -1.87328e-15 -2.55288e-15 10.3811 9.71125 15.099 12.8891 -2.76176e-15 -3.78169e-15 -2.55288e-15 -3.82213e-15 9.71125 8.31036 12.8891 10.8464 -3.78169e-15 -2.66801e-15 -3.82213e-15 -1.52339e-15 8.31036 5.07504 10.8464 8.31036 -2.66801e-15 -2.18629e-15 -1.52339e-15 -1.57379e-15 5.07504 2.20796 8.31036 5.35683 -2.18629e-15 -3.24567e-15 -1.57379e-15 -4.2599e-16 2.20796 -3.41533e-15 5.35683 1.75286 -3.24567e-15 -3.98753e-15 -4.2599e-16 -2.9148e-15 -3.41533e-15 -3.24716e-15 1.75286 -2.88775e-15 -3.41849e-15 -2.40168e-15 -1.03718e-15 -3.49528e-15 -1.66219e-15 1.75286 -2.87421e-15 2.99468 -2.40168e-15 -1.6643e-15 -3.49528e-15 -3.43785e-15 1.75286 5.35683 2.99468 6.84748 -1.6643e-15 -2.82649e-15 -3.43785e-15 -2.18183e-15 5.35683 8.31036 6.84748 9.71125 -2.82649e-15 -4.39484e-15 -2.18183e-15 -2.61785e-15 8.31036 10.8464 9.71125 12.8891 -4.39484e-15 -4.01941e-15 -2.61785e-15 -2.3059e-15 10.8464 12.8891 12.8891 15.1378 -4.01941e-15 -1.7609e-15 -2.3059e-15 -3.74472e-15 12.8891 15.099 15.1378 16.9892 -1.7609e-15 -4.31203e-15 -3.74472e-15 -3.37648e-15 15.099 17.9408 16.9892 18.1313 -4.31203e-15 -3.61139e-15 -3.37648e-15 -9.33061e-16 17.9408 17.9408 18.1313 18.1313 -3.61139e-15 -1.87328e-15 -9.33061e-16 -4.51369e-15 17.9408 15.099 18.1313 16.9892 -1.87328e-15 -2.55288e-15 -4.51369e-15 -1.81443e-15 15.099 12.8891 16.9892 15.1378 -2.55288e-15 -3.82213e-15 -1.81443e-15 -9.26573e-16 12.8891 10.8464 15.1378 12.8891 -3.82213e-15 -1.52339e-15 -9.26573e-16 -6.98505e-16 10.8464 8.31036 12.8891 9.71125 -1.52339e-15 -1.57379e-15 -6.98505e-16 -2.84871e-15 8.31036 5.35683 9.71125 6.84748 -1.57379e-15 -4.2599e-16 -2.84871e-15 -3.34123e-15 5.35683 1.75286 6.84748 2.99468 -4.2599e-16 -2.9148e-15 -3.34123e-15 -3.06111e-15 1.75286 -2.88775e-15 2.99468 -1.59079e-15 -3.43146e-15 -1.03718e-15 -2.13621e-15 -1.8723e-15 -3.52135e-15 -2.87421e-15 -4.11532e-15 1.3394 -1.03718e-15 -3.49528e-15 -1.8723e-15 -4.33256e-15 -2.87421e-15 2.99468 1.3394 3.93137 -3.49528e-15 -3.43785e-15 -4.33256e-15 -5.01328e-15 2.99468 6.84748 3.93137 6.85503 -3.43785e-15 -2.18183e-15 -5.01328e-15 -2.03948e-15 6.84748 9.71125 6.85503 10.3811 -2.18183e-15 -2.61785e-15 -2.03948e-15 -4.69665e-15 9.71125 12.8891 10.3811 15.099 -2.61785e-15 -2.3059e-15 -4.69665e-15 -1.24629e-15 12.8891 15.1378 15.099 16.9892 -2.3059e-15 -3.74472e-15 -1.24629e-15 -2.32546e-15 15.1378 16.9892 16.9892 17.7736 -3.74472e-15 -3.37648e-15 -2.32546e-15 -2.4679e-15 16.9892 18.1313 17.7736 17.9129 -3.37648e-15 -9.33061e-16 -2.4679e-15 -3.42357e-15 18.1313 18.1313 17.9129 17.9129 -9.33061e-16 -4.51369e-15 -3.42357e-15 -2.03494e-15 18.1313 16.9892 17.9129 17.7736 -4.51369e-15 -1.81443e-15 -2.03494e-15 -4.36357e-15 16.9892 15.1378 17.7736 16.9892 -1.81443e-15 -9.26573e-16 -4.36357e-15 -1.80111e-15 15.1378 12.8891 16.9892 15.099 -9.26573e-16 -6.98505e-16 -1.80111e-15 -3.24022e-15 12.8891 9.71125 15.099 10.3811 -6.98505e-16 -2.84871e-15 -3.24022e-15 -3.80847e-15 9.71125 6.84748 10.3811 6.85503 -2.84871e-15 -3.34123e-15 -3.80847e-15 -3.02781e-15 6.84748 2.99468 6.85503 3.93137 -3.34123e-15 -3.06111e-15 -3.02781e-15 -3.57148e-15 2.99468 -1.59079e-15 3.93137 1.3394 -3.06111e-15 -2.56729e-15 -3.57148e-15 -3.54101e-15 -1.59079e-15 -3.87259e-15 1.3394 -4.99694e-15 -2.13621e-15 -1.8723e-15 -3.4e-15 -2.31563e-15 -4.11532e-15 1.3394 -7.49364e-16 2.47686 -1.8723e-15 -4.33256e-15 -2.31563e-15 -2.43154e-15 1.3394 3.93137 2.47686 5.02746 -4.33256e-15 -5.01328e-15 -2.43154e-15 -2.03289e-15 3.93137 6.85503 5.02746 7.57083 -5.01328e-15 -2.03948e-15 -2.03289e-15 -2.05766e-15 6.85503 10.3811 7.57083 12.8625 -2.03948e-15 -4.69665e-15 -2.05766e-15 -3.09596e-15 10.3811 15.099 12.8625 17.9408 -4.69665e-15 -1.24629e-15 -3.09596e-15 -2.93461e-15 15.099 16.9892 17.9408 18.1313 -1.24629e-15 -2.32546e-15 -2.93461e-15 -2.08321e-15 16.9892 17.7736 18.1313 17.9129 -2.32546e-15 -2.4679e-15 -2.08321e-15 -1.85665e-15 17.7736 17.9129 17.9129 17.6268 -2.4679e-15 -3.42357e-15 -1.85665e-15 -4.49023e-15 17.9129 17.9129 17.6268 17.6268 -3.42357e-15 -2.03494e-15 -4.49023e-15 -3.27694e-15 17.9129 17.7736 17.6268 17.9129 -2.03494e-15 -4.36357e-15 -3.27694e-15 -2.30719e-15 17.7736 16.9892 17.9129 18.1313 -4.36357e-15 -1.80111e-15 -2.30719e-15 -2.88757e-15 16.9892 15.099 18.1313 17.9408 -1.80111e-15 -3.24022e-15 -2.88757e-15 -4.66078e-15 15.099 10.3811 17.9408 12.8625 -3.24022e-15 -3.80847e-15 -4.66078e-15 -2.42745e-15 10.3811 6.85503 12.8625 7.57083 -3.80847e-15 -3.02781e-15 -2.42745e-15 -1.65032e-15 6.85503 3.93137 7.57083 5.02746 -3.02781e-15 -3.57148e-15 -1.65032e-15 -3.06266e-15 3.93137 1.3394 5.02746 2.47686 -3.57148e-15 -3.54101e-15 -3.06266e-15 -1.81482e-15 1.3394 -4.99694e-15 2.47686 -2.98694e-15 -3.4e-15 -2.31563e-15 -2.29813e-15 -2.86265e-15 -7.49364e-16 2.47686 -2.48189e-15 2.47686 -2.31563e-15 -2.43154e-15 -2.86265e-15 -3.69515e-15 2.47686 5.02746 2.47686 5.02746 -2.43154e-15 -2.03289e-15 -3.69515e-15 -3.58002e-15 5.02746 7.57083 5.02746 7.57083 -2.03289e-15 -2.05766e-15 -3.58002e-15 -3.97102e-15 7.57083 12.8625 7.57083 12.8625 -2.05766e-15 -3.09596e-15 -3.97102e-15 -3.43343e-15 12.8625 17.9408 12.8625 17.9408 -3.09596e-15 -2.93461e-15 -3.43343e-15 -1.13474e-15 17.9408 18.1313 17.9408 18.1313 -2.93461e-15 -2.08321e-15 -1.13474e-15 -2.91255e-15 18.1313 17.9129 18.1313 17.9129 -2.08321e-15 -1.85665e-15 -2.91255e-15 -3.15431e-15 17.9129 17.6268 17.9129 17.6268 -1.85665e-15 -4.49023e-15 -3.15431e-15 -1.77715e-15 17.6268 17.6268 17.6268 17.6268 -4.49023e-15 -3.27694e-15 -1.77715e-15 -2.09001e-15 17.6268 17.9129 17.6268 17.9129 -3.27694e-15 -2.30719e-15 -2.09001e-15 -3.32974e-15 17.9129 18.1313 17.9129 18.1313 -2.30719e-15 -2.88757e-15 -3.32974e-15 -4.26796e-15 18.1313 17.9408 18.1313 17.9408 -2.88757e-15 -4.66078e-15 -4.26796e-15 -1.03158e-15 17.9408 12.8625 17.9408 12.8625 -4.66078e-15 -2.42745e-15 -1.03158e-15 -2.02844e-15 12.8625 7.57083 12.8625 7.57083 -2.42745e-15 -1.65032e-15 -2.02844e-15 -3.2742e-15 7.57083 5.02746 7.57083 5.02746 -1.65032e-15 -3.06266e-15 -3.2742e-15 -3.98505e-15 5.02746 2.47686 5.02746 2.47686 -3.06266e-15 -1.81482e-15 -3.98505e-15 -1.52305e-15 2.47686 -2.98694e-15 2.47686 -2.41712e-15 -2.29813e-15 -2.86265e-15 -2.91945e-15 -2.32539e-15 -2.48189e-15 2.47686 -2.82034e-15 1.3394 -2.86265e-15 -3.69515e-15 -2.32539e-15 -4.66984e-15 2.47686 5.02746 1.3394 3.93137 -3.69515e-15 -3.58002e-15 -4.66984e-15 -3.9142e-15 5.02746 7.57083 3.93137 6.85503 -3.58002e-15 -3.97102e-15 -3.9142e-15 -6.24531e-16 7.57083 12.8625 6.85503 10.3811 -3.97102e-15 -3.43343e-15 -6.24531e-16 -3.11806e-15 12.8625 17.9408 10.3811 15.099 -3.43343e-15 -1.13474e-15 -3.11806e-15 -3.84329e-15 17.9408 18.1313 15.099 16.9892 -1.13474e-15 -2.91255e-15 -3.84329e-15 -4.02674e-15 18.1313 17.9129 16.9892 17.7736 -2.91255e-15 -3.15431e-15 -4.02674e-15 -1.25306e-15 17.9129 17.6268 17.7736 17.9129 -3.15431e-15 -1.77715e-15 -1.25306e-15 -1.24264e-15 17.6268 17.6268 17.9129 17.9129 -1.77715e-15 -2.09001e-15 -1.24264e-15 -2.9854e-15 17.6268 17.9129 17.9129 17.7736 -2.09001e-15 -3.32974e-15 -2.9854e-15 -4.38854e-15 17.9129 18.1313 17.7736 16.9892 -3.32974e-15 -4.26796e-15 -4.38854e-15 -3.31329e-15 18.1313 17.9408 16.9892 15.099 -4.26796e-15 -1.03158e-15 -3.31329e-15 -6.2508e-16 17.9408 12.8625 15.099 10.3811 -1.03158e-15 -2.02844e-15 -6.2508e-16 -4.4708e-15 12.8625 7.57083 10.3811 6.85503 -2.02844e-15 -3.2742e-15 -4.4708e-15 -1.92936e-15 7.57083 5.02746 6.85503 3.93137 -3.2742e-15 -3.98505e-15 -1.92936e-15 -1.12402e-15 5.02746 2.47686 3.93137 1.3394 -3.98505e-15 -1.52305e-15 -1.12402e-15 -2.83613e-15 2.47686 -2.41712e-15 1.3394 -4.05015e-15 -2.91945e-15 -2.32539e-15 -1.47087e-15 -4.78702e-15 -2.82034e-15 1.3394 -2.1757e-15 -2.79121e-15 -2.32539e-15 -4.66984e-15 -4.78702e-15 -3.28523e-15 1.3394 3.93137 -2.79121e-15 2.99468 -4.66984e-15 -3.9142e-15 -3.28523e-15 -3.43223e-15 3.93137 6.85503 2.99468 6.84748 -3.9142e-15 -6.24531e-16 -3.43223e-15 -3.96141e-15 6.85503 10.3811 6.84748 9.71125 -6.24531e-16 -3.11806e-15 -3.96141e-15 -2.45513e-15 10.3811 15.099 9.71125 12.8891 -3.11806e-15 -3.84329e-15 -2.45513e-15 -2.5621e-15 15.099 16.9892 12.8891 15.1378 -3.84329e-15 -4.02674e-15 -2.5621e-15 -3.34631e-15 16.9892 17.7736 15.1378 16.9892 -4.02674e-15 -1.25306e-15 -3.34631e-15 -3.10023e-15 17.7736 17.9129 16.9892 18.1313 -1.25306e-15 -1.24264e-15 -3.10023e-15 -2.87958e-15 17.9129 17.9129 18.1313 18.1313 -1.24264e-15 -2.9854e-15 -2.87958e-15 -1.8504e-15 17.9129 17.7736 18.1313 16.9892 -2.9854e-15 -4.38854e-15 -1.8504e-15 -1.92556e-15 17.7736 16.9892 16.9892 15.1378 -4.38854e-15 -3.31329e-15 -1.92556e-15 -3.67899e-15 16.9892 15.099 15.1378 12.8891 -3.31329e-15 -6.2508e-16 -3.67899e-15 -2.40132e-15 15.099 10.3811 12.8891 9.71125 -6.2508e-16 -4.4708e-15 -2.40132e-15 -2.74743e-15 10.3811 6.85503 9.71125 6.84748 -4.4708e-15 -1.92936e-15 -2.74743e-15 -3.23918e-15 6.85503 3.93137 6.84748 2.99468 -1.92936e-15 -1.12402e-15 -3.23918e-15 -1.17225e-15 3.93137 1.3394 2.99468 -2.69853e-15 -1.12402e-15 -2.83613e-15 -1.17225e-15 -3.05454e-15 1.3394 -4.05015e-15 -2.69853e-15 -2.40365e-15 -4.78702e-15 -3.28523e-15 -2.42992e-15 -3.92918e-15 -2.79121e-15 2.99468 -3.78751e-15 1.75286 -3.28523e-15 -3.43223e-15 -3.92918e-15 -9.33674e-16 2.99468 6.84748 1.75286 5.35683 -3.43223e-15 -3.96141e-15 -9.33674e-16 -4.54239e-15 6.84748 9.71125 5.35683 8.31036 -3.96141e-15 -2.45513e-15 -4.54239e-15 -3.56115e-15 9.71125 12.8891 8.31036 10.8464 -2.45513e-15 -2.5621e-15 -3.56115e-15 -3.00634e-15 12.8891 15.1378 10.8464 12.8891 -2.5621e-15 -3.34631e-15 -3.00634e-15 -1.68843e-15 15.1378 16.9892 12.8891 15.099 -3.34631e-15 -3.10023e-15 -1.68843e-15 -2.702e-15 16.9892 18.1313 15.099 17.9408 -3.10023e-15 -2.87958e-15 -2.702e-15 -2.97191e-15 18.1313 18.1313 17.9408 17.9408 -2.87958e-15 -1.8504e-15 -2.97191e-15 -3.16038e-15 18.1313 16.9892 17.9408 15.099 -1.8504e-15 -1.92556e-15 -3.16038e-15 -5.62895e-15 16.9892 15.1378 15.099 12.8891 -1.92556e-15 -3.67899e-15 -5.62895e-15 -4.39434e-15 15.1378 12.8891 12.8891 10.8464 -3.67899e-15 -2.40132e-15 -4.39434e-15 -2.75884e-15 12.8891 9.71125 10.8464 8.31036 -2.40132e-15 -2.74743e-15 -2.75884e-15 -1.49463e-15 9.71125 6.84748 8.31036 5.35683 -2.74743e-15 -3.23918e-15 -1.49463e-15 -4.13024e-15 6.84748 2.99468 5.35683 1.75286 -3.23918e-15 -1.17225e-15 -4.13024e-15 -5.50383e-15 2.99468 -2.69853e-15 1.75286 -2.66604e-15 -2.42992e-15 -3.92918e-15 -2.81213e-15 -4.08977e-15 -3.78751e-15 1.75286 -2.56647e-15 -2.69354e-15 -3.92918e-15 -9.33674e-16 -4.08977e-15 -1.42838e-15 1.75286 5.35683 -2.69354e-15 2.20796 -9.33674e-16 -4.54239e-15 -1.42838e-15 -4.00415e-15 5.35683 8.31036 2.20796 5.07504 -4.54239e-15 -3.56115e-15 -4.00415e-15 -2.54124e-15 8.31036 10.8464 5.07504 8.31036 -3.56115e-15 -3.00634e-15 -2.54124e-15 -1.02466e-15 10.8464 12.8891 8.31036 9.71125 -3.00634e-15 -1.68843e-15 -1.02466e-15 -2.9283e-15 12.8891 15.099 9.71125 10.3811 -1.68843e-15 -2.702e-15 -2.9283e-15 -3.65401e-15 15.099 17.9408 10.3811 12.8625 -2.702e-15 -2.97191e-15 -3.65401e-15 -2.75096e-15 17.9408 17.9408 12.8625 12.8625 -2.97191e-15 -3.16038e-15 -2.75096e-15 -3.27525e-15 17.9408 15.099 12.8625 10.3811 -3.16038e-15 -5.62895e-15 -3.27525e-15 -1.79757e-15 15.099 12.8891 10.3811 9.71125 -5.62895e-15 -4.39434e-15 -1.79757e-15 -3.44956e-15 12.8891 10.8464 9.71125 8.31036 -4.39434e-15 -2.75884e-15 -3.44956e-15 -1.4767e-15 10.8464 8.31036 8.31036 5.07504 -2.75884e-15 -1.49463e-15 -1.4767e-15 -1.99957e-15 8.31036 5.35683 5.07504 2.20796 -1.49463e-15 -4.13024e-15 -1.99957e-15 -3.45914e-15 5.35683 1.75286 2.20796 -2.29626e-15 -4.13024e-15 -5.50383e-15 -3.45914e-15 -1.6896e-15 1.75286 -2.66604e-15 -2.29626e-15 -2.34452e-15 -4.08977e-15 -1.42838e-15 -4.01947e-15 -3.9393e-15 -2.69354e-15 2.20796 -3.05609e-15 -2.32681e-15 -1.42838e-15 -4.00415e-15 -3.9393e-15 -3.56706e-15 2.20796 5.07504 -2.32681e-15 2.20796 -4.00415e-15 -2.54124e-15 -3.56706e-15 -2.64946e-15 5.07504 8.31036 2.20796 5.35683 -2.54124e-15 -1.02466e-15 -2.64946e-15 -3.76675e-15 8.31036 9.71125 5.35683 6.84748 -1.02466e-15 -2.9283e-15 -3.76675e-15 -3.82839e-15 9.71125 10.3811 6.84748 6.85503 -2.9283e-15 -3.65401e-15 -3.82839e-15 -3.27083e-15 10.3811 12.8625 6.85503 7.57083 -3.65401e-15 -2.75096e-15 -3.27083e-15 -4.72277e-15 12.8625 12.8625 7.57083 7.57083 -2.75096e-15 -3.27525e-15 -4.72277e-15 -4.11116e-15 12.8625 10.3811 7.57083 6.85503 -3.27525e-15 -1.79757e-15 -4.11116e-15 -2.4603e-15 10.3811 9.71125 6.85503 6.84748 -1.79757e-15 -3.44956e-15 -2.4603e-15 -2.40439e-15 9.71125 8.31036 6.84748 5.35683 -3.44956e-15 -1.4767e-15 -2.40439e-15 -1.82426e-15 8.31036 5.07504 5.35683 2.20796 -1.4767e-15 -1.99957e-15 -1.82426e-15 -2.26447e-15 5.07504 2.20796 2.20796 -2.24102e-15 -1.99957e-15 -3.45914e-15 -2.26447e-15 -3.39579e-15 2.20796 -2.29626e-15 -2.24102e-15 -2.54423e-15 -3.9393e-15 -3.56706e-15 -2.00051e-15 -4.10805e-15 -2.32681e-15 2.20796 -1.00759e-15 -2.84921e-15 -3.56706e-15 -2.64946e-15 -4.10805e-15 -4.62633e-15 2.20796 5.35683 -2.84921e-15 1.75286 -2.64946e-15 -3.76675e-15 -4.62633e-15 -3.70039e-15 5.35683 6.84748 1.75286 2.99468 -3.76675e-15 -3.82839e-15 -3.70039e-15 -4.47788e-15 6.84748 6.85503 2.99468 3.93137 -3.82839e-15 -3.27083e-15 -4.47788e-15 -3.48709e-15 6.85503 7.57083 3.93137 5.02746 -3.27083e-15 -4.72277e-15 -3.48709e-15 -3.25643e-15 7.57083 7.57083 5.02746 5.02746 -4.72277e-15 -4.11116e-15 -3.25643e-15 -2.48749e-15 7.57083 6.85503 5.02746 3.93137 -4.11116e-15 -2.4603e-15 -2.48749e-15 -2.17169e-15 6.85503 6.84748 3.93137 2.99468 -2.4603e-15 -2.40439e-15 -2.17169e-15 -1.72218e-15 6.84748 5.35683 2.99468 1.75286 -2.40439e-15 -1.82426e-15 -1.72218e-15 -2.39824e-15 5.35683 2.20796 1.75286 -3.151e-15 -1.82426e-15 -2.26447e-15 -2.39824e-15 -1.77766e-15 2.20796 -2.24102e-15 -3.151e-15 -4.15019e-15 -4.10805e-15 -4.62633e-15 -2.67897e-15 -8.68888e-16 -2.84921e-15 1.75286 -2.45823e-15 -2.73204e-15 -4.62633e-15 -3.70039e-15 -8.68888e-16 -3.62263e-15 1.75286 2.99468 -2.73204e-15 -1.11006e-15 -3.70039e-15 -4.47788e-15 -3.62263e-15 -2.85212e-15 2.99468 3.93137 -1.11006e-15 1.3394 -4.47788e-15 -3.48709e-15 -2.85212e-15 -3.60725e-15 3.93137 5.02746 1.3394 2.47686 -3.48709e-15 -3.25643e-15 -3.60725e-15 -3.66255e-15 5.02746 5.02746 2.47686 2.47686 -3.25643e-15 -2.48749e-15 -3.66255e-15 -2.90949e-15 5.02746 3.93137 2.47686 1.3394 -2.48749e-15 -2.17169e-15 -2.90949e-15 -1.54619e-15 3.93137 2.99468 1.3394 -4.25434e-15 -2.17169e-15 -1.72218e-15 -1.54619e-15 -1.15167e-15 2.99468 1.75286 -4.25434e-15 -2.8362e-15 -1.72218e-15 -2.39824e-15 -1.15167e-15 -2.86889e-15 1.75286 -3.151e-15 -2.8362e-15 -2.2986e-15 -3.62263e-15 -2.85212e-15 -1.97249e-16 -4.46942e-15 -1.11006e-15 1.3394 -1.64688e-15 -1.35891e-15 -2.85212e-15 -3.60725e-15 -4.46942e-15 -1.85332e-15 1.3394 2.47686 -1.35891e-15 -4.84889e-15 -3.60725e-15 -3.66255e-15 -1.85332e-15 -1.32878e-15 2.47686 2.47686 -4.84889e-15 -2.44852e-15 -3.66255e-15 -2.90949e-15 -1.32878e-15 -2.59801e-15 2.47686 1.3394 -2.44852e-15 -1.61992e-15 -2.90949e-15 -1.54619e-15 -2.59801e-15 -3.90464e-15 1.3394 -4.25434e-15 -1.61992e-15 -2.31884e-15 -1.58343e-15 -3.48571e-15 -2.90137e-15 1.3394 -4.07753e-15 -2.21159e-15 -2.51938e-15 2.07827 -3.48571e-15 -5.21981e-15 1.3394 2.47686 -2.21159e-15 -8.55373e-16 2.07827 5.02275 -5.21981e-15 -3.59644e-15 2.47686 2.47686 -8.55373e-16 -1.84259e-15 5.02275 5.02275 -3.59644e-15 -2.50558e-15 2.47686 1.3394 -1.84259e-15 -3.93712e-15 5.02275 2.07827 -2.50558e-15 -1.55312e-15 1.3394 -3.34486e-15 -3.93712e-15 -1.47272e-15 2.07827 -1.43716e-15 -3.67547e-15 -2.47206e-15 -3.5707e-15 1.75286 -3.45608e-15 -3.29053e-15 -1.6401e-15 2.77377 -2.47206e-15 -2.90137e-15 1.75286 2.99468 -3.29053e-15 -2.51938e-15 2.77377 5.46419 -2.90137e-15 1.3394 2.99468 3.93137 -2.51938e-15 2.07827 5.46419 8.64602 1.3394 2.47686 3.93137 5.02746 2.07827 5.02275 8.64602 13.4752 2.47686 2.47686 5.02746 5.02746 5.02275 5.02275 13.4752 13.4752 2.47686 1.3394 5.02746 3.93137 5.02275 2.07827 13.4752 8.64602 1.3394 -3.344